 Output coordinates in angstroms (scale by  1.889725989 to convert to a.u.)

  No.       Tag          Charge          X              Y              Z
 ---- ---------------- ---------- -------------- -------------- --------------
    1 C                    6.0000     2.18723407     0.17355266     1.43551524
    2 O                    8.0000     2.03405664     1.51369371     0.94815584
    3 C                    6.0000     0.85745756     1.89242928     0.44966127
    4 C                    6.0000     0.73604806     3.21461705    -0.01997796
    5 C                    6.0000    -0.53512266     3.55288019    -0.50456010
    6 N                    7.0000    -0.41570002     4.86147690    -0.90605263
    7 C                    6.0000     0.89461843     5.23745410    -0.64646487
    8 N                    7.0000     1.61393801     4.28471592    -0.11654225
    9 N                    7.0000    -1.62000446     2.77764149    -0.54156886
   10 C                    6.0000    -1.37852015     1.54472999    -0.06941856
   11 N                    7.0000    -0.18587799     1.06132157     0.40087454
   12 N                    7.0000    -2.41981384     0.66642870    -0.08378061
   13 H                    1.0000     3.16043752     0.16267194     1.92722773
   14 H                    1.0000     2.17705942    -0.53936703     0.60750009
   15 H                    1.0000     1.40156108    -0.07179740     2.15555904
   16 H                    1.0000    -1.14966159     5.42315590    -1.30900229
   17 H                    1.0000     1.24830297     6.23357805    -0.87604411
   18 H                    1.0000    -2.40058610    -0.13634541     0.54054173
   19 H                    1.0000    -3.31820907     1.07907186    -0.28107495
   20 C                    6.0000     1.50996118    -5.06147242    -1.23642833
   21 C                    6.0000     0.47649211    -4.23448824    -0.53076059
   22 C                    6.0000    -0.63914840    -4.74052755     0.03840446
   23 N                    7.0000    -1.56236723    -3.94138362     0.68087303
   24 C                    6.0000    -1.44540978    -2.56612934     0.78790077
   25 O                    8.0000    -2.30438457    -1.88890783     1.34623788
   26 N                    7.0000    -0.29915484    -2.05702307     0.22012845
   27 C                    6.0000     0.70221310    -2.78600577    -0.44461776
   28 O                    8.0000     1.68963709    -2.22156017    -0.89856885
   29 H                    1.0000     1.63079957    -4.73004121    -2.27270859
   30 H                    1.0000     1.23906429    -6.12050266    -1.23678152
   31 H                    1.0000     2.48864271    -4.94979194    -0.75888491
   32 H                    1.0000    -0.87336687    -5.79939609     0.02556430
   33 H                    1.0000    -2.40062235    -4.33052349     1.08676002
   34 H                    1.0000    -0.17729893    -1.03413907     0.27909050

         Total DFT energy =    -1036.034379277550

                       DFT Final Molecular Orbital Analysis
                       ------------------------------------

 Vector    1  Occ=2.000000D+00  E=-1.918068D+01

 Vector  301  Occ=0.000000D+00  E= 2.524632D+00

 Vector  302  Occ=0.000000D+00  E= 2.547362D+00

 Vector  303  Occ=0.000000D+00  E= 2.560425D+00

 Vector  304  Occ=0.000000D+00  E= 2.563798D+00

 Vector  305  Occ=0.000000D+00  E= 2.567222D+00

 Vector  306  Occ=0.000000D+00  E= 2.577305D+00

 Vector  307  Occ=0.000000D+00  E= 2.579266D+00

 Vector  308  Occ=0.000000D+00  E= 2.597991D+00

 Vector  309  Occ=0.000000D+00  E= 2.603503D+00

 Vector  310  Occ=0.000000D+00  E= 2.616151D+00

 Vector  311  Occ=0.000000D+00  E= 2.632117D+00

 Vector  312  Occ=0.000000D+00  E= 2.641026D+00

 Vector  313  Occ=0.000000D+00  E= 2.643896D+00

 Vector  314  Occ=0.000000D+00  E= 2.646591D+00

 Vector  315  Occ=0.000000D+00  E= 2.671531D+00

 Vector  316  Occ=0.000000D+00  E= 2.688100D+00

 Vector  317  Occ=0.000000D+00  E= 2.700187D+00

 Vector  318  Occ=0.000000D+00  E= 2.707250D+00

 Vector  319  Occ=0.000000D+00  E= 2.725937D+00

 Vector  320  Occ=0.000000D+00  E= 2.747227D+00

 Vector  321  Occ=0.000000D+00  E= 2.760479D+00

 Vector  322  Occ=0.000000D+00  E= 2.770564D+00

 Vector  323  Occ=0.000000D+00  E= 2.781103D+00

 Vector  324  Occ=0.000000D+00  E= 2.785380D+00

 Vector  325  Occ=0.000000D+00  E= 2.797006D+00

 Vector  326  Occ=0.000000D+00  E= 2.806842D+00

 Vector  327  Occ=0.000000D+00  E= 2.839900D+00

 Vector  328  Occ=0.000000D+00  E= 2.862760D+00

 Vector  329  Occ=0.000000D+00  E= 2.864615D+00

 Vector  330  Occ=0.000000D+00  E= 2.868277D+00

 Vector  331  Occ=0.000000D+00  E= 2.870305D+00

 Vector  332  Occ=0.000000D+00  E= 2.880480D+00

 Vector  333  Occ=0.000000D+00  E= 2.899513D+00

 Vector  334  Occ=0.000000D+00  E= 2.956090D+00

 Vector  335  Occ=0.000000D+00  E= 2.989853D+00

 Vector  336  Occ=0.000000D+00  E= 2.991057D+00

 Vector  337  Occ=0.000000D+00  E= 3.049696D+00

 Vector  338  Occ=0.000000D+00  E= 3.067052D+00

 Vector  339  Occ=0.000000D+00  E= 3.083647D+00

 Vector  340  Occ=0.000000D+00  E= 3.122419D+00

 Vector  341  Occ=0.000000D+00  E= 3.142154D+00

 Vector  342  Occ=0.000000D+00  E= 3.161615D+00

 Vector  343  Occ=0.000000D+00  E= 3.175522D+00

 Vector  344  Occ=0.000000D+00  E= 3.183302D+00

 Vector  345  Occ=0.000000D+00  E= 3.230260D+00

 Vector  346  Occ=0.000000D+00  E= 3.261452D+00

 Vector  347  Occ=0.000000D+00  E= 3.272033D+00

 Vector  348  Occ=0.000000D+00  E= 3.352770D+00

 Vector  349  Occ=0.000000D+00  E= 3.374682D+00

 Vector  350  Occ=0.000000D+00  E= 3.392240D+00

 Vector  351  Occ=0.000000D+00  E= 3.421229D+00

 Vector  352  Occ=0.000000D+00  E= 3.437773D+00

 Vector  353  Occ=0.000000D+00  E= 3.448091D+00

 Vector  354  Occ=0.000000D+00  E= 3.451089D+00

 Vector  355  Occ=0.000000D+00  E= 3.487074D+00

 Vector  356  Occ=0.000000D+00  E= 3.526564D+00

 Vector  357  Occ=0.000000D+00  E= 3.604429D+00

 Vector  358  Occ=0.000000D+00  E= 3.669950D+00

 Vector  359  Occ=0.000000D+00  E= 3.737601D+00

 Vector  360  Occ=0.000000D+00  E= 3.982588D+00

 Vector  361  Occ=0.000000D+00  E= 4.026875D+00

 Vector  362  Occ=0.000000D+00  E= 4.031801D+00

 Vector  363  Occ=0.000000D+00  E= 4.054631D+00

 Vector  364  Occ=0.000000D+00  E= 4.088653D+00

 Vector  365  Occ=0.000000D+00  E= 4.138305D+00

 Vector  366  Occ=0.000000D+00  E= 4.217933D+00

 Vector  367  Occ=0.000000D+00  E= 4.234133D+00

 Vector  368  Occ=0.000000D+00  E= 4.237833D+00

 Vector  369  Occ=0.000000D+00  E= 4.267012D+00

 Vector  370  Occ=0.000000D+00  E= 4.382824D+00

 Vector  371  Occ=0.000000D+00  E= 4.390838D+00

 Vector  372  Occ=0.000000D+00  E= 4.444301D+00

 Vector  373  Occ=0.000000D+00  E= 4.457424D+00

 Vector  374  Occ=0.000000D+00  E= 4.481807D+00

 Vector  375  Occ=0.000000D+00  E= 4.515558D+00

 Vector  376  Occ=0.000000D+00  E= 4.552221D+00

 Vector  377  Occ=0.000000D+00  E= 4.669946D+00

 Vector  378  Occ=0.000000D+00  E= 4.712969D+00

 Vector  379  Occ=0.000000D+00  E= 4.752220D+00

 Vector  380  Occ=0.000000D+00  E= 4.815183D+00

     Multipole analysis of the density
     ---------------------------------

     L   x y z        total         alpha         beta         nuclear
     -   - - -        -----         -----         ----         -------
     0   0 0 0     -0.000000    -76.000000    -76.000000    152.000000

     1   1 0 0     -1.347832     -1.007145     -1.007145      0.666458
     1   0 1 0     -1.624530      3.584311      3.584311     -8.793152
     1   0 0 1     -0.012694     -3.962856     -3.962856      7.913018

     2   2 0 0    -91.433873   -645.197863   -645.197863   1198.961853
     2   1 1 0     -1.756061    -96.162029    -96.162029    190.567996
     2   1 0 1      2.908063     41.084831     41.084831    -79.261600
     2   0 2 0    -52.948457  -2904.316092  -2904.316092   5755.683728
     2   0 1 1     -7.565168     56.116800     56.116800   -119.798768

 Total times  cpu:       39.1s     wall:       40.4s
